/*--------------------------------*- C++ -*----------------------------------*\
  =========                 |
  \\      /  F ield         | OpenFOAM: The Open Source CFD Toolbox
   \\    /   O peration     | Website:  https://openfoam.org
    \\  /    A nd           | Version:  11
     \\/     M anipulation  |
\*---------------------------------------------------------------------------*/
FoamFile
{
    format      ascii;
    class       volScalarField;
    location    "0";
    object      yPlus;
}
// * * * * * * * * * * * * * * * * * * * * * * * * * * * * * * * * * * * * * //

dimensions      [0 0 0 0 0 0 0];

internalField   uniform 0;

boundaryField
{
    north
    {
        type            symmetryPlane;
    }
    south
    {
        type            symmetryPlane;
    }
    top
    {
        type            symmetryPlane;
    }
    bottom
    {
        type            symmetryPlane;
    }
    inlet
    {
        type            calculated;
        value           uniform 0;
    }
    outlet
    {
        type            calculated;
        value           uniform 0;
    }
    rotor
    {
        type            calculated;
        value           nonuniform List<scalar> 
30237
(
20.5981
65.2641
36.7339
42.4021
73.7443
12.4728
70.1705
66.5779
75.0174
21.6392
53.7922
58.271
64.2846
64.2846
87.5612
30.9954
30.9954
84.3084
69.4064
36.6623
63.7139
81.8486
36.8177
35.0398
55.1426
74.9123
56.3454
37.8586
42.2098
49.7377
4.5867
57.6617
57.6617
62.665
53.5904
86.6113
21.9584
38.3082
94.7251
82.3007
107.656
65.5552
33.1301
65.608
67.3873
30.4293
76.3734
60.5998
52.0686
71.316
43.2394
100.284
77.7872
97.5082
105.708
70.3407
70.3407
68.5528
72.8284
14.021
22.1053
44.9578
80.2096
69.2467
74.1566
63.0182
63.0182
57.703
57.703
48.1839
55.8946
52.5145
94.0195
90.5654
114.032
34.7263
56.3651
90.6302
86.17
98.1589
60.7937
27.3543
70.1617
125.993
101.079
113.783
35.9916
98.0671
19.7561
39.1774
6.74756
28.2987
62.3291
66.3573
64.1798
85.264
101.2
106.624
26.9366
72.1607
85.1292
152.263
46.9078
87.9589
29.9451
101.855
26.0199
57.8674
92.9468
83.5848
134.924
72.5515
95.9891
98.7813
104.57
126.635
37.0372
139.125
22.8762
47.185
42.455
73.034
69.3102
80.3292
78.2226
56.8451
61.6564
78.7765
31.3339
34.8145
106.396
161.77
44.9634
88.1668
87.345
68.5502
98.0649
83.9971
84.5602
93.8201
65.408
67.9864
103.008
17.8916
45.9923
60.7496
93.6954
65.2831
72.9409
59.3
67.5002
55.2606
88.4812
65.0195
63.858
83.4942
42.4903
67.069
37.1334
98.8031
81.2309
38.8076
92.4245
35.3921
25.0142
97.8777
20.4999
34.4853
32.963
32.8816
68.6562
81.5459
50.7225
97.4011
19.2236
64.6055
87.0065
19.9116
34.3001
71.4361
67.2149
37.267
28.534
43.8388
95.2412
73.2894
93.9505
43.6634
85.1503
68.0659
62.3818
79.2453
31.3403
92.0925
34.7366
105.614
164.352
46.428
109.876
59.0019
19.861
84.0032
46.841
37.5025
89.1753
90.9795
38.843
21.1023
46.3406
41.7504
63.6538
69.8359
48.5761
84.6273
38.4631
103.447
48.6665
49.2771
23.7951
80.6528
23.2557
62.4588
37.7172
24.2162
51.4102
96.2567
91.7732
35.4669
72.0679
19.0791
53.7454
40.7933
33.1873
71.2621
68.6572
98.322
39.0598
70.8892
156.854
56.158
78.9191
95.5251
81.9146
35.8194
82.5114
58.9301
22.1076
92.0012
39.667
42.3512
37.8044
91.7371
83.3276
20.0738
53.6877
46.3853
50.4992
37.5388
52.9342
66.0655
66.2085
54.5051
89.657
41.8513
72.5917
18.7903
43.2936
57.4823
19.3415
79.3506
39.1268
69.6258
87.2369
46.7944
76.7535
47.7956
40.5354
52.173
45.1942
44.8161
44.6096
65.1649
47.0838
62.1219
95.5933
58.7771
56.3207
40.3301
35.7782
45.1092
37.2122
45.1418
36.9556
46.9929
45.0871
87.9709
42.3095
62.2758
57.4482
44.2923
50.3878
82.5397
86.9353
84.3302
55.985
84.6952
39.4459
37.9183
51.9721
129.822
115.546
99.4388
104.568
46.8828
36.1599
34.4599
46.1461
33.4583
33.5799
43.8007
49.7694
36.529
34.4904
96.1222
62.5126
46.8382
42.9152
82.4472
57.1666
29.657
17.5009
49.1162
62.3533
21.8203
37.5385
51.0742
69.1137
35.1736
50.2782
40.07
52.0268
43.8862
60.953
22.1197
44.8022
47.456
37.0835
98.3036
49.3717
23.901
94.8214
48.2125
87.0963
93.4768
53.0532
44.4779
57.5145
58.5685
104.09
27.068
65.4481
31.971
92.6259
67.6708
102.21
36.9225
34.0897
43.9204
53.2754
59.9894
57.4766
38.4429
23.6776
45.2364
54.5626
82.7967
151.606
39.0159
31.9111
92.718
60.2952
37.3578
21.8665
19.2506
33.6224
55.6665
21.9464
45.1973
80.7542
86.05
66.3688
56.4808
54.5843
37.3126
55.2451
54.6092
61.9623
30.2239
61.974
62.6784
40.4505
49.1461
57.8635
70.7726
39.0621
77.5202
30.0445
45.8588
56.5312
78.1623
54.4286
54.0844
56.3226
50.1229
60.6187
77.5739
78.8941
56.1496
45.3998
45.9014
24.2366
18.3991
8.25006
34.9911
16.6501
54.9365
46.7057
27.251
55.6298
58.3727
16.7955
32.1221
21.7712
35.1598
44.5035
6.26311
49.6399
59.0792
59.1532
72.8762
34.4518
96.3893
71.1467
72.8324
28.0881
25.6527
91.7158
71.3232
17.6966
81.2012
27.793
77.2678
92.2411
60.0865
33.0998
23.3766
82.2806
56.818
95.7503
52.7608
53.1325
83.3454
23.1523
75.2471
21.4019
47.9023
41.7061
62.2676
77.9179
26.0466
52.1176
63.818
14.934
162.037
33.9226
71.1226
163.887
47.7549
24.5979
83.9694
79.3692
72.7347
21.3782
59.2941
56.3394
25.461
55.7207
58.6406
91.906
86.7614
24.0375
38.6425
72.7583
20.9125
72.0199
83.7815
81.7317
47.938
95.8403
34.7156
61.1346
29.5099
90.0519
70.6708
88.0437
22.6612
20.8538
88.9769
20.2622
90.4825
24.3124
54.3357
19.6537
63.7387
79.3822
19.1891
50.4614
36.0024
90.8213
88.2069
23.0016
41.5467
62.0293
36.9599
53.9135
57.927
71.9426
50.4541
93.9992
92.293
18.5193
88.6792
90.9057
37.4403
83.1616
85.752
96.973
92.6817
16.5252
56.5583
39.939
29.3852
45.3204
73.4777
25.0715
26.0997
66.515
20.317
54.6284
103.01
75.8727
103.836
60.3531
42.3437
100.937
77.8529
69.0925
64.2241
44.473
79.0878
73.8767
62.6129
93.8744
52.1934
86.3646
65.1665
69.19
45.5742
83.4343
22.3592
26.7429
21.6743
18.7122
35.1596
23.9932
45.262
66.6919
92.0967
22.5753
83.7332
83.9643
85.5347
92.9425
105.383
91.5575
38.5962
32.9555
39.4815
20.8225
73.8242
88.9766
54.8104
55.1464
92.0552
76.6915
22.4294
50.9386
15.9792
93.9189
36.648
77.8631
53.3011
53.373
71.3487
61.3273
68.309
67.9122
58.6211
56.574
62.0392
102.156
68.5278
93.4432
64.703
83.4806
51.895
23.3341
27.8109
24.5051
21.2334
74.9924
85.2583
24.1722
93.715
29.9581
56.3596
23.6348
70.4962
87.6413
26.8089
54.9833
24.2638
69.0331
80.782
54.8762
54.754
63.8507
81.6438
37.0986
63.5495
81.2361
36.5015
103.742
97.8273
25.3883
37.7153
24.3852
89.3562
76.4333
93.338
94.1864
68.903
27.3225
72.3252
57.1931
44.0563
150.782
37.2126
80.7161
40.9187
139.383
63.57
75.3563
31.8083
56.3136
70.5786
81.3464
55.4606
85.5511
48.8511
20.0704
69.334
44.8002
37.0563
50.762
70.2035
42.8532
26.6323
26.127
25.0733
77.2017
23.9135
56.1439
86.2445
94.9464
46.5553
21.0746
38.3057
50.8734
108.692
27.2122
57.727
134.485
119.096
65.9148
29.0477
53.219
23.5746
61.6483
53.5277
30.8787
107.899
112.827
68.2962
24.0853
26.7947
53.8894
96.4133
96.1328
19.3875
20.077
96.3764
97.5352
103.098
26.69
61.0475
27.2022
72.5106
61.0045
82.7744
63.4934
28.5557
63.6792
53.6769
58.1615
65.7172
69.9585
6.09089
46.5303
42.7604
54.2256
63.8427
57.0522
18.6202
21.6392
36.8177
35.3659
50.4495
84.6201
43.8905
84.3084
75.8181
14.6983
16.6501
98.7214
48.8151
16.1732
29.8303
37.8416
118.67
143.121
37.4836
41.995
45.5624
26.0294
31.9684
30.6453
28.401
110.934
17.5259
119.366
36.8503
106.647
96.4459
111.021
71.7518
61.5197
75.8301
47.8547
90.5654
22.1053
99.9695
83.4217
14.705
25.1219
23.5324
43.94
112.405
57.1727
51.6562
49.8753
25.3564
8.29563
14.5784
15.5889
100.335
102.288
105.389
117.829
84.6162
90.9359
146.149
114.866
79.6504
71.2811
98.6528
104.31
118.797
94.3792
109.839
114.394
85.9321
94.8702
95.1681
127.901
37.7283
64.8186
14.2078
48.0442
31.2139
119.902
39.7922
56.5423
103.985
140.775
29.7864
89.0989
111.296
93.1601
106.304
164.678
83.5499
70.1297
88.6715
84.6782
108.965
21.925
101.673
108.625
105.45
125.46
119.827
107.365
41.8078
108.951
69.23
142.726
69.2817
104.964
87.9262
60.6983
76.5427
72.7594
92.0105
55.2643
119.353
89.7392
58.4395
140.886
92.3477
43.206
24.4768
56.7966
65.0291
92.857
37.9289
101.701
40.1139
91.736
99.5047
91.8941
45.5373
96.019
32.1814
21.5712
102.983
96.3031
143.604
33.1621
74.3634
163.01
71.3653
85.7326
23.0707
38.1067
139.109
111.237
42.991
84.3371
84.0004
32.2265
45.6374
74.7669
20.2897
101.615
67.9734
50.4771
34.0273
70.2421
88.574
103.395
135.107
65.6788
94.0588
86.4953
44.0141
42.6546
18.0403
37.7385
101.865
39.3436
91.919
99.5232
35.6278
91.9305
34.6335
84.5897
17.8669
21.6051
35.3818
34.4514
75.0802
74.1583
102.539
67.4017
85.1061
40.2701
37.3313
85.3259
66.6116
91.7866
53.0214
49.3889
43.5417
33.228
24.5699
56.9261
64.0808
95.1392
64.1506
110.346
46.6372
48.0608
39.1157
34.6164
41.61
76.957
49.7315
20.3788
65.7962
138.807
60.5843
63.6379
34.66
77.6937
50.0221
37.2558
33.3088
149.829
82.1065
49.0685
52.6917
59.1831
136.613
34.0131
37.598
51.3238
90.5295
44.8524
23.95
79.8948
90.3166
47.6915
22.7266
93.551
150.714
60.135
73.7323
54.1939
32.4623
90.028
40.5347
41.009
40.6393
70.3896
136.991
71.1158
138.61
98.6293
145.104
74.5039
39.9224
32.8178
88.7238
34.5968
36.7594
39.9211
82.4878
94.1868
37.9295
80.7273
81.0063
43.0431
39.4266
83.1491
42.8284
103.83
71.5326
41.9409
102.851
74.3473
70.164
39.9677
22.9087
93.38
84.2965
88.2937
59.9685
56.9465
56.1758
50.5019
87.6283
77.8635
78.4114
156.424
78.3354
34.8225
37.3917
84.9514
94.089
55.6525
40.8432
59.4667
124.899
102.012
53.6703
44.7589
51.7551
122.577
42.9723
21.3651
40.0749
66.8724
47.5191
52.6632
83.141
21.5426
67.8306
50.1972
41.5495
52.6517
36.5928
67.0793
50.6238
20.3499
78.2872
34.254
69.1671
33.6134
50.7576
44.3155
43.4918
53.8989
41.2201
72.9195
57.5983
131.217
50.1897
65.4127
138.686
130.043
52.8228
44.1421
107.842
58.2063
94.098
120.869
44.3182
37.3045
49.7939
42.4614
120.674
52.2121
81.754
40.3435
21.2833
34.7904
64.4324
54.6853
51.408
48.2792
83.9387
139.673
93.7136
52.5729
40.7895
49.4977
76.3625
76.2203
33.5588
46.3958
85.2369
122.699
81.9464
47.2537
77.5381
37.3554
82.4767
40.8187
91.3578
39.5165
82.135
40.6077
38.4348
38.5066
84.5366
88.3261
77.2116
77.7756
26.3602
35.5306
82.6373
101.161
85.7247
93.3269
79.7288
82.6469
43.649
93.3359
128.775
60.5688
47.5516
89.9925
150.328
22.7979
45.2371
164.908
46.1074
60.6395
64.1934
92.6636
158.307
67.5611
150.69
133.222
58.3355
64.1525
30.9177
50.7255
52.7901
134.359
103.029
81.9729
64.1147
27.8913
86.792
21.8556
45.1926
57.8555
54.6612
91.6227
86.6548
204.506
21.0831
41.6017
50.2366
60.8435
44.8219
83.4775
41.355
55.5488
76.8528
137.405
65.1187
49.0442
78.6959
172.769
41.2835
35.0062
20.4744
67.5898
22.1411
41.609
31.8884
27.5168
123.91
56.8086
76.118
43.9813
53.1776
121.522
123.574
40.5126
75.4751
91.216
73.7783
146.12
146.076
135.491
135.748
30.7608
49.0506
58.0327
60.7367
124.893
126.03
82.1039
150.85
37.8876
131.683
39.5299
141.621
134.054
51.1705
129.004
130.976
101.624
142.702
32.7386
131.447
137.492
71.5828
44.9821
170.321
58.4464
92.121
30.8407
158.07
60.2051
162.03
93.1594
177.007
53.829
99.7304
30.9741
90.1681
18.7133
14.6564
40.5434
44.5035
8.29563
41.1141
38.4585
34.5359
54.5315
35.3152
58.0728
94.7146
44.7275
38.4585
56.9939
48.7366
28.7788
32.4843
23.5324
19.757
19.9503
17.6737
38.4098
36.3183
12.2563
10.346
42.7889
37.8158
24.1457
51.7384
66.7528
20.5251
106.339
87.9614
17.6325
102.02
73.6861
77.2368
111.319
54.9261
23.8815
62.5549
65.7636
61.8546
125.715
66.5666
95.5837
24.8622
140.061
90.4591
84.3403
54.478
43.1721
21.5436
41.3641
72.1037
51.2458
39.8398
49.616
84.4075
39.8102
62.0189
53.819
73.0598
47.4539
22.706
28.3549
72.1584
68.0315
19.6741
40.3587
64.1426
28.5551
23.4695
23.3104
74.3463
19.575
50.0322
52.3865
23.5525
85.196
51.8502
70.7238
32.4718
107.97
58.0847
66.6352
35.7057
80.4874
54.0989
83.4684
58.1669
61.5481
78.051
144.769
106.187
76.5445
82.9014
51.7989
92.8061
47.6741
85.6219
70.7109
81.2826
78.9659
36.4478
103.498
94.0093
58.6962
38.6538
90.1739
103.21
17.8451
88.4437
84.7954
62.1977
61.0408
58.5802
74.9733
40.9053
70.23
90.9943
83.9779
57.1858
24.6625
25.9672
39.2635
85.9813
74.9349
23.6075
40.3685
89.4851
31.3352
45.3156
25.1517
38.7802
93.8149
37.0749
57.6933
91.8567
27.3832
41.6806
21.4977
72.5133
52.3891
85.8957
95.7829
86.7876
43.5394
46.754
65.899
98.1519
36.9455
104.837
102.864
47.9188
73.5572
137.396
42.447
130.581
36.9569
61.1501
92.4519
83.1586
51.0072
38.5506
59.4471
97.6877
35.2506
77.8165
19.44
18.5805
86.0972
27.8673
52.7603
29.4006
106.19
158.734
30.4839
88.2513
90.2229
92.0476
46.674
79.6403
33.7372
20.1459
19.2014
90.2806
30.6358
59.7454
73.525
50.5103
75.0961
56.2391
31.7158
100.847
42.5378
20.8668
68.3033
21.9404
56.324
42.7672
19.4241
80.3262
78.251
100.376
20.4982
94.6958
21.2148
92.0186
53.3192
23.195
84.3765
84.7075
98.7975
92.7934
24.333
55.7329
101.377
69.9276
87.1324
23.0076
90.219
27.1483
31.3792
64.8429
31.6131
28.6506
25.786
44.6038
62.2239
21.6234
26.4394
64.5551
28.7169
45.0855
88.3607
25.6567
69.3562
42.3533
72.0343
56.2687
63.4296
24.3985
17.5768
96.2628
84.2504
71.6613
18.8573
17.6122
52.88
101.417
72.6716
35.4053
89.5235
36.4841
38.6174
106.183
91.9745
51.3489
57.71
55.376
32.7734
39.9035
38.5976
89.6456
72.9827
63.6529
47.972
58.7217
38.991
87.5069
123.447
66.5859
52.533
41.6921
95.7026
20.7042
20.5793
60.3555
18.0947
87.8125
76.9852
36.2093
85.9267
74.7755
65.9434
84.6483
37.3116
83.3234
52.8527
63.4799
87.5718
56.9946
36.1046
56.0631
42.4457
92.1528
22.5558
61.8206
86.4408
28.4662
84.0896
23.4163
54.1492
57.8021
28.1275
42.7131
63.8976
67.2807
89.5463
42.2293
23.8554
86.4159
30.3922
48.475
28.5049
65.2692
67.2136
53.6785
28.2472
23.6781
26.2826
55.6206
54.8536
87.0832
22.4228
58.7647
63.8798
63.5128
99.8409
52.6594
81.8511
71.9145
76.1047
95.156
71.8217
47.0656
66.9064
32.0368
21.604
73.0142
21.2984
90.6357
50.1608
101.399
46.611
44.173
67.3974
75.0003
28.6451
54.1931
96.5949
101.164
64.5852
82.9127
78.514
19.208
57.9508
52.0747
23.8582
63.316
96.741
79.0712
77.4506
42.5851
42.8352
21.61
19.0956
62.9971
95.8329
102.849
103.451
100.966
116.125
52.17
72.2846
64.6048
59.4935
53.3233
35.4684
143.236
57.5183
102.853
98.9527
28.8598
32.8628
65.5831
46.1026
101.584
34.867
22.4678
63.8849
19.2205
81.4575
101.426
73.2588
70.1317
56.8864
89.6995
20.3098
23.689
97.833
33.9447
24.5783
23.6206
86.6842
54.0353
43.1594
59.1101
51.8529
71.3724
53.2865
87.9312
111.322
125.806
105.996
40.0075
33.8914
119.37
51.5864
77.6808
26.5552
71.304
53.6331
53.1283
84.8039
61.6638
25.6054
46.6959
102.877
118.841
61.7479
22.7959
81.4424
69.439
119.884
88.9443
110.58
117.163
101.881
75.8757
116.847
93.444
113.218
120.792
124.411
102.257
51.8639
81.1728
27.5664
23.0963
61.1262
27.0364
64.9513
73.819
28.8743
65.513
67.8828
35.0203
130.573
58.8411
66.199
53.2567
70.6261
45.8692
28.9544
73.251
24.1203
73.0649
44.9719
68.5587
89.0273
186.715
149.695
47.9115
80.8897
104.807
85.6083
81.1829
20.13
40.5033
21.7554
23.9014
48.1756
27.306
27.3322
19.186
11.8637
61.3819
33.0461
6.88811
44.9483
44.0428
46.5896
53.8414
49.8685
25.4339
37.0129
45.1552
5.0997
52.7901
52.7901
5.0997
5.0997
28.03
50.5667
49.6776
60.3092
65.9728
27.1045
30.0308
94.9785
19.1817
84.2407
69.1793
35.0367
30.1914
32.6033
69.011
27.7324
32.0716
64.3264
46.271
76.2175
29.8809
70.2994
26.5885
33.6895
31.3928
31.1753
32.2789
31.1826
24.9646
24.6216
22.7315
68.871
65.9368
62.8932
72.6002
35.0865
26.4616
44.1617
29.4628
26.5
40.1958
21.9923
27.9024
34.6342
43.0014
61.2915
49.8651
65.5101
76.3294
35.891
53.9649
56.9302
20.023
75.341
46.5703
29.9397
50.1848
33.1224
25.5157
75.2548
32.3476
121.585
50.9913
27.3411
28.7541
52.8159
32.1116
43.4055
45.6892
27.3358
45.599
70.3716
25.0038
55.7316
23.7362
21.4686
46.2728
33.8245
27.9029
92.5827
24.2371
43.8783
64.0037
26.2016
29.904
22.5913
21.7182
32.6085
34.6648
60.3949
64.4226
40.588
32.1807
30.1448
29.861
66.0205
24.7358
27.3009
65.4676
33.5463
37.0681
44.2433
116.432
70.2647
24.8401
44.9096
84.2912
24.7282
34.3529
29.7268
23.7293
29.0717
77.7802
72.1912
72.8372
99.7196
62.7038
53.4268
24.918
45.2505
36.6972
33.3342
51.4433
60.7874
36.2096
54.2332
30.5759
66.3442
27.0709
47.5608
73.7214
32.7802
26.5496
29.5465
49.7637
42.7339
64.2511
28.263
31.2068
76.3079
42.4293
75.8603
27.6327
66.5761
72.5305
50.8164
28.1509
48.0404
51.141
172.302
122.048
107.811
106.082
70.1943
74.8789
33.1775
39.2612
63.5957
93.4356
48.5994
60.8779
81.6037
79.922
36.6378
36.3295
32.0011
53.5479
31.1569
32.9175
83.6836
78.7231
40.8258
80.1127
65.0932
76.6666
93.6559
47.3608
49.3889
113.517
43.5601
64.5293
17.0445
43.1531
69.4263
32.9764
34.5086
34.9469
91.9456
89.3712
62.0332
31.5966
32.6599
37.8452
30.6543
88.9091
40.4034
49.9095
106.348
36.136
82.5986
39.4795
41.0438
94.6251
40.802
86.9088
58.8749
38.3439
76.4933
42.475
42.5792
110.879
86.7449
38.0749
76.256
49.4754
88.2333
34.4637
87.2273
38.0544
38.618
79.0976
67.8738
95.8224
118.07
70.5049
62.9812
41.0625
84.6756
101.766
87.4464
17.5582
99.2058
62.7524
66.5374
16.1263
49.8367
52.6196
32.9922
105.312
99.5512
67.4056
33.4925
79.9725
95.9203
85.0855
16.7688
74.2744
64.0711
48.1014
20.6308
73.5066
70.0679
69.2201
21.705
90.6241
48.03
98.3475
69.1906
47.866
39.2967
66.9999
21.9827
63.1743
54.2974
30.1889
95.8665
17.4725
72.1796
114.534
91.8637
89.3187
78.7831
68.2516
101.794
40.4347
33.7577
72.3772
90.7845
64.7591
56.6365
64.1139
56.7164
83.3017
47.2629
79.3766
86.9143
74.4913
97.3972
26.1354
76.5866
90.0815
52.159
88.9926
50.3318
77.812
70.0178
75.6603
67.4106
79.1086
86.893
92.326
53.0756
97.1948
81.275
106.716
84.789
86.8679
112.089
77.5479
85.1864
99.2866
74.089
69.0478
75.9987
59.9253
34.6024
81.0078
104.835
39.1421
109.122
114.334
49.1636
94.5699
85.5891
71.756
76.3135
97.3813
49.0773
98.9631
17.5155
28.7659
61.6906
41.6629
42.4732
46.2692
53.3759
35.4408
105.454
109.474
85.6108
36.9152
30.8929
106.025
118.613
98.1372
70.5067
62.9691
41.0514
87.4104
101.759
48.6402
17.5515
100.169
66.4665
62.7058
52.6241
32.9907
49.796
52.3709
57.3237
105.21
99.8718
67.3504
33.4668
85.5715
95.9316
16.7461
74.1034
63.5002
53.3173
48.1099
40.8393
73.5498
20.6169
78.829
32.8516
21.8897
48.0894
69.8698
98.3136
69.2157
47.8811
39.3084
29.276
67.0302
54.2786
63.1356
72.1918
114.553
91.9445
89.3246
28.9172
68.244
101.763
78.747
42.4325
40.4264
33.7327
90.4149
71.7506
64.5523
83.1668
47.2026
56.6083
63.9376
56.6207
76.5858
90.0624
52.1603
77.7925
88.9673
50.3087
79.3688
86.9058
97.4165
17.6453
74.5066
86.8911
92.3712
81.3244
97.1914
70.0214
76.0125
79.2408
67.5044
106.426
84.6931
86.5638
107.414
77.2619
84.2585
98.4658
73.9894
68.9088
75.7179
34.5279
59.8836
49.4943
98.5414
84.0788
72.8834
39.0418
113.909
108.992
48.8689
97.0231
76.2819
97.3569
17.5355
28.7644
61.6956
26.9407
42.5065
46.2283
53.479
41.6523
35.6358
106.471
113.215
87.0611
67.9435
32.7402
25.5969
32.81
26.6847
73.0527
30.8705
31.5297
109.9
30.446
115.537
34.7745
34.01
50.7952
70.3208
32.6359
113.275
29.4169
33.5322
30.4695
19.1033
23.6469
71.4799
66.7044
96.9373
17.4868
75.6105
45.0117
23.1234
134.828
72.0686
65.6252
102.507
24.606
32.0936
114.516
113.287
95.8482
69.9688
29.3402
28.86
67.472
67.2228
72.2521
123.293
69.021
33.3467
27.7439
25.6521
98.5303
101.782
102.632
105.85
93.7281
67.9402
146.484
26.3994
34.6591
27.6607
23.2122
199.245
48.3485
27.4406
31.3479
27.0197
65.6422
21.5662
67.963
30.7736
24.1581
50.8683
30.1517
60.4971
85.8243
24.7714
69.557
27.0137
48.9396
20.9309
25.3421
62.8485
46.462
64.3951
29.8443
66.6988
28.3059
25.5476
49.349
45.6727
23.8259
68.7153
29.2743
66.7167
51.4718
27.4776
32.1503
53.4483
58.4608
59.0577
35.403
36.3337
31.1356
30.6005
26.109
22.8954
31.6844
102.489
51.3858
55.3587
32.4098
84.2168
45.2149
37.1192
91.6113
25.0904
49.3375
66.4909
43.9465
67.4284
25.5668
102.795
96.4521
104.65
92.914
116.645
117.743
119.014
105.023
28.2668
25.4694
22.5796
30.7492
70.4204
32.0149
51.2925
72.5787
63.4832
88.8989
63.6068
45.2099
27.056
27.3707
63.9944
27.0875
27.302
64.4956
63.8396
108.848
65.1971
95.5241
106.124
102.106
101.747
29.9809
28.0863
41.7048
120.249
37.2233
24.5077
26.4778
27.9174
25.3302
67.8733
52.6541
25.3006
30.9826
72.6134
70.6475
32.265
61.7788
103.903
110.6
104.016
115.509
27.1066
53.3947
34.0264
24.6575
23.8082
23.7486
29.5251
28.9385
34.1864
26.7082
21.7398
27.6814
29.4244
25.1435
45.6319
67.3513
30.164
60.3746
65.289
47.2593
77.6414
28.4388
71.847
32.3818
51.0019
52.4045
28.9992
31.48
24.5268
24.0524
31.3141
31.8666
62.513
61.552
52.933
47.8612
46.1947
59.0252
28.3023
66.7867
22.9696
44.0386
24.3042
55.7799
72.0575
45.0252
44.8671
27.9984
23.4846
30.9269
44.5544
85.1993
82.677
24.3088
28.9372
71.0577
50.6358
46.8928
63.2447
24.2122
21.7257
61.3521
78.0308
51.9768
42.5782
51.7339
135.316
101.564
86.3662
64.0033
49.0124
21.9418
75.5056
79.1296
47.1614
63.3638
58.3798
43.3211
62.3711
22.3211
26.9998
26.4312
27.7177
27.3889
27.5147
24.6816
27.5983
38.7318
88.7281
67.9842
53.0892
25.1255
28.3176
46.1732
27.1789
61.1886
33.883
86.0532
135.067
73.9316
50.9537
44.7615
51.423
22.8015
44.6664
30.0227
29.2787
48.5703
29.3532
28.0337
70.598
48.1787
27.3289
79.4983
121.487
114.766
72.8816
56.5739
113.544
101.04
105.676
48.2683
55.7447
97.2518
30.8965
26.0202
60.0817
103.869
96.2343
111.468
65.898
113.127
25.9137
133.884
33.1997
127.619
46.436
109.079
118.779
58.4802
33.3055
63.0681
62.9165
30.1422
27.0003
27.4262
27.8201
48.9396
33.0101
27.5249
26.7765
69.3498
67.5117
62.8702
62.7861
32.7457
54.4708
32.2216
64.0986
63.5775
25.9295
33.2535
29.4294
32.1251
31.0848
24.6391
28.4877
48.6851
33.3689
27.1534
30.3439
24.0009
36.215
34.855
67.4523
23.6049
30.8119
29.902
31.2095
30.6626
31.3352
71.9227
47.1626
69.04
86.4134
41.4951
47.7392
30.4825
60.0331
31.6882
31.9439
24.7881
69.6365
30.6295
70.1406
31.1802
52.3285
49.4156
47.5962
47.3423
30.8322
34.0676
33.9836
29.2254
28.5826
25.8937
29.2134
66.9743
63.4393
35.7548
25.9499
73.3855
48.4771
66.3413
28.2421
32.5203
61.5769
34.2923
25.4377
25.8733
92.0965
31.0627
74.9823
45.373
77.0824
73.3643
31.9183
23.164
33.2055
32.3175
70.7255
25.0338
33.8606
50.5734
69.3193
29.9784
33.3022
72.7555
25.8739
34.0958
28.6013
63.2276
33.7311
64.31
28.6898
33.585
30.9541
30.9576
62.3438
49.1512
24.3788
28.5671
64.2094
63.0394
25.898
29.5815
65.386
35.7328
49.2817
71.0784
30.6718
33.7273
26.2844
34.5526
77.7757
22.6173
24.5828
70.3433
31.6096
72.517
27.421
33.8714
55.4874
25.9003
26.0237
31.1389
68.3397
25.0899
26.364
63.9092
64.5839
31.1369
48.9155
25.2331
26.8693
32.3745
46.9557
67.7375
24.8331
55.581
69.1021
35.9609
34.7559
92.9031
47.943
34.689
68.0961
71.6273
42.7056
91.6079
29.8172
43.2813
28.3548
72.6387
48.6906
70.8407
24.7673
32.1175
62.2948
65.0551
45.2876
86.9552
23.1508
42.6135
57.5369
59.1147
23.5519
26.117
49.4534
67.2213
43.4569
29.3351
22.5387
31.9915
33.9357
65.7475
33.8747
26.7523
27.432
34.8177
33.5019
68.2196
76.1845
26.2539
64.6848
28.9397
64.197
27.7671
24.8079
46.1848
95.7107
37.7747
76.6354
26.5041
98.8055
28.4527
48.4235
119.78
87.6061
22.2978
27.0936
65.9904
63.9109
25.2243
76.0515
25.0805
35.2155
51.0966
52.3938
27.4609
26.0485
29.4182
26.1721
47.1723
26.3984
64.8951
47.2389
28.6137
29.5834
30.3032
30.4942
68.2543
49.0386
75.8356
31.8747
63.3566
27.176
26.4686
33.7982
26.0465
25.0717
29.8784
25.3531
25.3599
29.3991
26.008
23.3553
24.7286
71.6622
33.3216
27.6548
52.0317
64.7091
22.7475
45.7078
26.1172
73.3205
30.3126
48.3509
73.5951
59.8679
23.2882
45.8799
76.5841
138.143
28.7031
67.2033
68.9814
34.046
65.9906
28.2407
26.9858
63.0347
60.408
68.7577
88.8872
24.839
26.9318
25.9633
83.0613
31.3478
63.4815
20.2805
85.4411
57.6236
38.2558
65.0874
23.8374
20.1866
23.5242
49.2092
52.7036
25.3191
47.6956
26.2897
45.2472
71.1826
68.8029
25.6304
70.3049
27.7905
27.0996
33.0402
62.7825
50.9991
92.6278
95.5097
33.8482
33.2342
98.739
55.5154
42.5372
49.0525
23.7734
21.9616
91.4271
51.7984
26.4292
30.5696
77.0788
59.6895
54.7276
105.235
54.8991
59.5077
86.8503
28.4851
71.7884
66.0758
67.2911
62.4256
23.8264
31.8442
73.8516
63.7294
49.547
34.5488
29.9322
34.9272
36.383
35.2478
45.4443
62.4431
49.2722
28.3725
65.5005
32.1685
33.8154
54.7557
48.777
68.5042
74.7682
100.082
42.3897
74.6643
64.547
67.4787
99.5535
134.295
72.5681
63.3223
33.2965
67.5885
30.7854
39.9087
102.647
67.3661
121.598
106.321
65.9642
110.802
53.4045
21.4955
86.8094
84.994
140.372
40.7935
108.558
118.935
65.6266
59.9429
89.3977
21.784
38.8955
29.3897
87.4561
37.9672
74.8796
140.953
56.5149
146.736
79.9377
72.1743
136.534
93.5359
92.4912
36.3931
73.0185
45.8674
67.057
22.0025
51.5941
79.2651
37.1307
99.9239
90.3183
68.401
98.1279
91.6846
67.5392
33.9119
65.2313
35.2522
40.6312
103.659
39.1613
73.6763
100.86
88.0907
34.7263
65.4191
90.2887
32.2936
83.8626
46.6008
16.2548
72.7591
17.5136
97.7383
76.7046
67.808
32.401
92.8353
75.8448
78.4863
79.6312
36.8488
35.4051
54.2465
16.5753
37.0717
75.7498
78.1669
37.8997
46.1491
78.6174
40.1287
35.5196
138.173
132.125
40.7072
39.5834
88.714
80.4627
115.726
146.101
38.0036
82.9844
83.6559
77.9147
45.8139
105.221
184.428
48.6584
103.764
90.0795
78.3999
72.2676
76.0654
87.4957
24.3802
89.8352
36.1884
75.0967
96.5226
129.157
101.047
64.4808
63.443
80.1007
72.8817
52.3874
57.3459
77.9637
70.7761
140.247
91.8029
61.8058
133.071
110.789
100.793
79.6339
104.714
155.123
90.8158
26.8156
69.4218
54.8376
38.5112
138.72
88.419
53.3969
34.8213
28.923
37.6637
76.887
71.5786
137.031
108.371
132.595
41.0659
135.318
91.7299
29.2966
36.8383
80.8993
31.991
72.3436
50.1143
51.2488
57.8445
73.3562
53.6187
13.4798
84.5475
70.4146
57.8763
66.3456
43.4704
74.3343
103.269
87.0899
18.3542
82.9586
125.297
145.264
115.219
22.4002
27.1638
101.262
25.4894
93.0178
71.7685
52.0221
85.4246
17.6801
50.6009
58.1247
79.8739
79.7133
112.607
90.6323
119.103
74.2728
68.1879
59.4776
68.452
69.0385
63.9607
63.3008
85.3094
68.8895
74.7325
74.972
90.5402
85.9802
55.0514
76.8369
78.3807
68.5739
72.4239
70.9394
100.422
133.717
65.9714
63.2207
82.1399
104.21
128.636
95.3549
88.0951
90.5073
107.591
82.4376
79.0491
61.6572
61.8372
62.6322
105.332
35.1161
34.4477
87.1806
124.48
77.9317
72.1791
140.045
130.774
81.7715
89.2821
19.1518
93.465
31.0358
102.523
100.811
72.2004
86.5557
81.1807
99.5263
77.0542
60.1175
75.1369
83.6946
20.9073
67.8146
95.6279
77.7361
22.2725
78.1501
95.4355
30.2096
67.8132
139.653
62.2737
36.9566
146.304
54.7236
16.1213
78.3825
72.2689
76.0462
22.0043
87.4953
89.8491
72.8839
77.9632
36.1526
75.0838
96.5452
129.211
101.083
80.1115
64.4624
63.4751
100.812
79.6674
70.7634
141.908
95.3746
133.795
110.953
61.8519
104.707
155.088
90.7826
69.3633
54.8517
141.738
88.1573
53.4222
98.7827
132.845
38.2717
124.379
59.9419
34.834
84.9152
140.227
108.6
40.7863
119.193
30.8075
110.726
125.866
73.12
132.834
102.126
137.873
40.9191
74.1298
137.636
91.7127
36.8374
80.8817
31.9948
27.1633
72.3562
50.0983
51.2532
57.8435
73.3429
53.6422
13.503
84.5447
24.3578
70.3545
66.426
74.3664
18.362
103.239
82.917
38.4787
125.407
145.488
87.0343
92.4684
115.156
22.3701
101.241
25.4674
93.0132
74.9905
74.7319
90.5246
53.0331
76.8522
78.3608
85.9799
55.0256
85.4064
50.5823
71.748
51.999
58.1192
112.624
26.0948
90.5927
119.15
79.8916
79.7125
74.2643
63.3169
85.3132
68.9098
68.2081
59.4842
68.4827
69.0558
64.0078
88.0766
95.3161
90.5211
82.4526
79.0824
107.512
72.4156
68.5418
100.517
131.107
71.3431
82.1818
104.617
130.263
65.9894
63.3517
61.5521
61.9782
62.9594
86.9851
122.785
71.8161
134.746
132.51
77.8566
81.8295
89.2573
19.1682
93.4874
100.785
102.602
81.2218
72.2169
86.542
20.8355
99.5024
67.9936
31.0487
77.024
60.1243
75.1109
83.6799
96.0285
30.9689
77.8784
22.1032
78.5889
95.6063
30.2459
68.4544
35.8827
146.441
62.3309
38.2316
128.02
54.7668
39.2816
115.582
144.124
105.288
184.462
48.6489
103.801
67.2928
67.2968
33.1095
31.481
64.0121
35.4507
33.8032
62.9943
26.3847
63.5167
27.9963
68.9345
49.5246
25.6252
21.6731
63.4672
26.4971
27.5607
28.8093
47.1136
50.8888
25.2923
64.4528
34.4741
65.399
27.2382
27.1494
25.7335
26.7628
26.4294
31.0992
82.8398
32.399
67.1071
69.5513
60.0174
112.056
81.1676
92.3418
96.8923
101.313
57.0457
100.617
104.115
132.12
26.8145
69.7411
26.6613
52.2064
81.7458
32.4499
28.6859
64.3031
47.538
89.518
99.1555
60.6724
106.942
64.9194
27.1935
64.4857
27.1256
22.2702
61.8295
29.306
65.7452
27.5311
55.657
65.2568
32.6946
28.6165
44.7728
31.3231
36.5193
32.8343
30.221
81.1219
77.7015
25.3132
69.1934
62.7695
116.574
31.874
29.7916
31.4997
49.7219
34.5596
70.9134
29.1235
42.0294
34.7824
30.429
66.6139
27.703
75.2036
30.6442
31.656
27.2237
49.3762
26.2446
24.6116
31.4823
38.9807
25.2902
21.4088
67.5
27.0166
27.928
44.3239
28.3651
64.5621
61.9355
64.8387
55.6101
27.5414
83.9347
66.3514
28.0152
28.0459
25.3483
22.8951
48.8351
22.001
27.9666
52.5649
67.7098
47.5353
25.4693
25.8105
61.6028
54.5369
53.4384
96.882
34.9956
34.2117
27.7451
63.9028
35.2594
29.2997
26.1191
25.3622
29.3233
25.2492
62.2835
66.998
52.4773
54.2646
72.2327
41.7699
28.6758
21.522
25.7894
32.8254
26.974
26.535
64.039
27.1421
29.4063
67.5226
27.6564
22.0452
22.7373
99.0792
46.8908
29.7283
78.9161
56.8021
69.3261
19.074
20.3248
24.881
28.8004
28.4616
32.5706
54.1857
28.5631
28.56
64.3141
32.7353
24.7887
33.4492
61.6673
28.2402
33.6189
58.3237
56.7969
47.0293
33.6828
32.71
74.2333
51.5703
129.43
63.8437
27.2555
27.1516
28.5363
28.6037
63.9603
27.3009
64.2906
25.9656
24.351
27.675
52.4245
52.4466
26.1893
27.0528
64.2203
25.2157
26.4129
25.1743
62.1704
27.1054
33.0468
64.1648
28.1058
28.4828
25.4576
60.975
31.4913
66.0277
108.156
27.1036
67.6264
54.2325
114.124
44.6464
64.935
26.2194
92.2302
26.6747
46.6397
29.363
30.7051
65.1674
72.671
28.8966
85.5836
54.9157
32.058
63.6179
28.4706
28.7277
61.3392
63.5635
28.3515
64.009
28.438
25.395
22.522
59.0918
91.3857
29.228
34.3874
55.0792
60.0222
27.3821
28.1799
32.8022
25.2867
28.4089
61.3912
26.4268
25.5833
45.1092
86.814
34.8653
32.9262
49.2495
65.4508
35.0111
31.8808
49.2242
69.3161
25.4056
55.0056
47.6479
26.4897
23.9105
31.8975
62.3412
31.6616
103.858
30.7377
55.51
47.7498
63.1787
114.084
101.421
56.0392
31.5902
101.324
63.3134
35.399
70.5278
35.2699
31.7664
33.6762
36.2167
74.3102
66.2756
30.8291
65.0908
30.7647
36.1591
48.3518
67.4561
30.859
25.8325
23.1348
23.6461
72.0909
53.1088
27.0781
44.2431
59.8439
45.0834
22.9052
68.1841
25.433
32.3707
25.4096
67.8118
35.1782
32.2973
49.4792
66.1078
63.3593
31.4322
24.8007
136.746
98.8131
77.9118
56.9016
28.4212
131.995
21.4204
105.877
73.5072
41.4987
69.7001
51.2627
32.6499
26.6018
54.9638
29.7972