/*--------------------------------*- C++ -*----------------------------------*\
  =========                 |
  \\      /  F ield         | OpenFOAM: The Open Source CFD Toolbox
   \\    /   O peration     | Website:  https://openfoam.org
    \\  /    A nd           | Version:  11
     \\/     M anipulation  |
\*---------------------------------------------------------------------------*/
FoamFile
{
    format      ascii;
    class       volScalarField;
    location    "0";
    object      yPlus;
}
// * * * * * * * * * * * * * * * * * * * * * * * * * * * * * * * * * * * * * //

dimensions      [0 0 0 0 0 0 0];

internalField   uniform 0;

boundaryField
{
    north
    {
        type            symmetryPlane;
    }
    south
    {
        type            symmetryPlane;
    }
    top
    {
        type            symmetryPlane;
    }
    bottom
    {
        type            symmetryPlane;
    }
    inlet
    {
        type            calculated;
        value           uniform 0;
    }
    outlet
    {
        type            calculated;
        value           uniform 0;
    }
    rotor
    {
        type            calculated;
        value           nonuniform List<scalar> 
108471
(
3.52369
4.31055
4.48914
1.8262
4.11137
1.30173
4.13436
1.31844
3.16178
1.44539
9.0194
2.36226
2.10849
1.96152
3.31105
1.53946
4.82381
1.98758
1.18842
5.12787
4.95676
4.94806
1.5919
3.8517
1.75001
3.09701
3.37503
1.00857
1.66551
1.33993
3.665
4.83589
2.22247
2.00257
2.92387
2.17147
4.56482
2.4286
2.21821
3.88773
4.67837
4.75624
4.81366
3.02772
2.29989
4.74323
2.44579
5.27874
4.76343
4.42633
1.42285
3.6649
1.83754
5.3737
3.60805
4.07205
5.10513
1.885
3.59167
2.97259
1.00609
1.38648
1.45658
3.25372
4.16085
3.20502
1.62008
3.49688
2.84376
1.30008
3.74437
4.09547
2.89616
3.31885
3.7851
1.50005
2.88229
4.67941
2.40124
3.14787
5.58796
2.93974
5.16927
1.77656
1.14004
1.5439
1.23915
4.65361
3.43615
6.91788
1.54108
1.40934
2.03935
1.36248
1.39798
2.79787
3.90848
4.47481
1.36992
1.19015
2.97249
2.17219
2.23927
1.08182
1.94843
1.447
4.99918
3.53788
1.443
4.71316
2.98678
1.17728
4.63131
1.71454
4.01321
0.922304
2.12881
2.12359
4.79137
1.09312
4.24255
1.60109
4.71219
3.01855
5.32524
4.59835
2.65233
1.42665
2.77443
1.57773
1.60017
1.18811
2.85883
4.66161
4.84698
2.90456
3.26815
1.14542
1.28427
1.14771
1.26605
2.29301
1.58821
1.06931
2.97784
1.25116
3.62023
1.40186
3.28072
1.46127
1.09655
1.16638
2.8528
5.1351
1.82773
3.43948
5.01146
4.07113
2.8224
1.98782
2.91733
4.11135
5.13827
2.96069
2.79556
3.65302
1.43105
1.20636
3.76127
3.85784
2.8418
1.07687
4.14392
3.65522
3.19251
2.98037
1.05737
3.49127
1.26366
2.37625
1.72568
2.97775
4.2393
4.50768
1.9457
1.07124
3.06824
4.40839
1.58452
4.09047
4.10595
1.64159
3.25377
6.63826
1.12245
5.09804
3.86133
1.35506
3.05888
1.20351
3.36264
2.98987
4.88264
1.42748
1.436
1.75365
7.16264
2.13641
4.89672
2.64972
1.38894
3.14662
3.37379
2.00703
4.54827
3.10463
2.10541
4.59907
1.07992
0.989441
1.83679
5.14289
2.40718
1.27441
3.40011
1.67153
3.97122
1.77664
4.03364
1.3149
2.24462
0.880678
3.6018
1.60516
0.899668
2.77694
4.60773
4.62787
1.1998
3.42179
3.41379
1.39847
1.35431
3.44585
3.44069
1.41099
2.79193
2.82801
1.40507
3.62742
3.68026
1.56771
1.8433
3.74063
3.70877
1.14486
1.77289
1.15301
4.15596
1.38275
5.56815
1.9237
1.51262
3.09741
3.43034
5.15157
1.99416
2.00054
1.45693
2.86341
5.23954
1.32308
1.1559
4.31176
3.09618
0.915646
4.5366
1.88106
1.42773
7.31297
7.80597
7.7808
2.07277
1.23288
4.55362
2.0359
5.35613
4.62915
4.8592
3.49862
1.05694
1.29839
1.91315
4.54828
4.45926
2.98112
1.96323
3.054
5.31012
4.25297
2.18139
4.62019
2.38273
2.3551
2.4867
1.91019
3.17008
4.61785
2.12542
1.01751
3.19727
4.88282
1.55107
3.98302
1.01454
5.29502
4.40825
1.09191
1.12316
3.11977
3.32304
3.56648
3.86695
1.76491
3.60348
1.26883
1.26404
2.98885
3.00637
3.06282
1.45154
4.74305
1.24692
1.30547
2.91905
2.89434
1.20609
4.73727
3.51434
1.3819
3.58494
1.48555
1.23361
4.89131
4.68537
2.86972
2.87792
1.19224
4.67151
3.67816
1.4078
3.67339
1.26761
1.1949
4.5904
4.60345
1.55772
5.01225
1.90024
4.90701
3.03636
1.99438
4.43805
2.01219
4.64648
3.26319
1.24804
4.75229
1.20746
2.99677
2.93273
1.41501
2.68557
1.47553
3.59964
3.66809
3.61696
1.51748
3.34204
3.51619
7.70322
3.09702
1.34837
1.5729
1.81178
2.17985
1.34628
3.16934
4.1282
4.09106
1.24419
3.4134
5.42591
1.99725
3.35699
1.84559
1.99892
2.69872
1.41937
1.82618
4.35554
1.8613
1.55089
3.01977
3.0799
1.41474
7.53669
7.77559
3.00473
1.44587
2.33284
2.63789
7.37038
2.25446
6.90136
4.86403
1.69957
4.90699
1.64606
1.37962
3.33664
1.55523
1.70932
1.54298
1.41695
1.32404
5.28362
1.80059
1.36142
6.16877
3.47409
2.9721
3.43751
1.4108
3.44774
4.59368
4.61086
2.79779
1.35548
3.41228
3.353
2.81052
4.15866
4.0678
2.96801
3.12972
4.63479
4.47083
4.03816
1.78339
1.32172
5.63537
6.33615
6.39771
1.22336
1.98369
1.72006
1.28577
1.25209
3.66142
3.56241
1.46493
3.71275
3.68825
1.53374
3.12987
3.01879
1.2451
1.23786
2.69244
2.07687
1.63892
3.5124
1.81424
2.91647
2.87233
4.72838
1.19831
3.54063
3.54978
1.38105
1.47641
1.21477
4.64957
4.66259
3.89248
2.8563
4.73114
5.23393
4.02662
2.21295
2.78978
4.54155
1.12395
1.51441
3.58895
3.57655
1.5001
1.48824
1.6363
5.00572
3.35052
3.08801
1.17231
4.49727
4.19723
3.44731
3.39225
1.39906
1.39736
3.51971
3.58868
1.45303
1.42035
3.56023
3.57754
2.77032
3.83163
4.39148
1.36801
3.01729
1.62021
3.89291
2.04614
1.41275
3.77786
3.03721
1.51831
3.43938
7.35286
4.31267
3.44022
9.40817
2.81508
1.78976
4.71688
1.59241
1.28555
1.42011
3.90911
6.22956
5.83192
6.53258
1.9005
3.86196
4.26156
1.85062
4.17003
9.20008
1.87409
6.67772
2.84199
1.48464
4.10497
5.69826
1.84604
3.90104
7.60743
5.40959
2.45135
3.34751
2.61447
1.25357
1.21916
1.54167
1.15884
1.65251
1.38379
3.43872
1.48198
3.4806
1.84864
2.789
1.6221
1.72357
1.23241
1.87997
1.74759
1.55301
3.63403
3.09967
1.66159
2.61613
1.75432
1.28802
2.58495
3.86354
2.84059
1.31009
2.74425
1.77601
1.671
1.33271
2.83725
1.95736
6.13409
6.14835
6.62703
6.33591
8.27627
4.12641
1.72194
3.05538
6.45948
5.71461
4.36098
6.01531
6.20401
3.29712
4.09394
3.62512
2.87909
3.96451
1.51386
1.58673
3.77503
1.74736
1.78728
6.25699
6.75424
2.78751
2.10591
2.58628
1.35882
1.8003
3.29373
3.38367
3.34899
3.52327
1.3365
2.78849
1.74501
3.64824
3.98237
1.80545
1.81432
1.74296
1.84693
3.63291
1.82268
7.92828
8.88617
3.55998
1.11588
1.18501
1.42215
1.89997
1.40799
2.90822
3.60853
1.70913
2.78889
2.74502
3.4162
2.73064
1.87591
2.41934
1.52241
3.71985
1.14987
1.78762
1.74422
2.7274
2.67664
1.34667
2.93151
4.10006
1.48765
1.58067
2.90118
1.48382
1.7566
1.59883
5.67339
1.77427
1.23247
1.6351
1.87199
1.45062
1.50761
3.5221
1.65399
2.58657
6.68299
2.0613
6.81544
9.65893
1.89667
8.60067
2.67624
1.26956
3.59447
1.47494
1.60096
1.93626
1.44054
3.94897
2.48229
1.54116
2.00863
8.35438
8.17689
4.1835
2.53156
2.23075
4.47789
1.35749
2.36427
1.26681
1.71475
2.14635
1.22962
3.38124
3.52876
1.13057
2.76283
1.46747
4.09378
2.75972
4.38491
3.73025
1.32184
4.01516
4.13133
1.31808
5.30302
4.4768
5.44391
2.28368
5.1823
1.53089
5.73739
2.34396
1.52406
4.75226
5.24793
4.18493
3.1719
4.43831
3.53119
4.39708
2.29454
1.18373
2.12966
3.67249
4.92838
1.64492
4.46022
2.29041
7.99914
1.32013
8.91558
4.48144
1.40239
2.79988
2.15795
5.26278
8.33757
3.95415
1.55026
9.71182
4.65432
2.92325
5.50517
5.50283
4.04312
1.80584
2.30648
5.71974
2.08307
5.45426
2.82857
2.65422
3.85666
5.90422
1.09997
4.56149
3.89382
1.16826
4.5492
2.47651
6.38204
3.81213
3.08108
1.16075
1.30355
5.01913
2.65801
1.40629
1.90266
8.21461
4.62016
3.33008
4.35012
7.94293
3.03215
2.12308
5.51734
4.19605
2.92006
5.77061
3.09461
2.47395
1.68315
4.95377
5.53636
2.36274
0.953598
1.11929
5.77524
1.96476
5.29602
5.93148
2.16322
6.48154
5.67053
4.87326
4.18634
5.07898
1.56123
6.16479
2.14017
4.81384
2.85004
4.13931
1.79079
1.07398
1.2978
2.8214
4.57076
3.39196
5.04892
4.4238
1.26907
8.18089
4.03702
2.00072
2.83513
1.05203
4.50219
1.26006
2.05295
1.15072
4.26027
4.09999
1.1867
1.71247
5.85249
3.73584
5.44267
1.18298
1.26825
4.52706
4.0298
2.6211
5.99382
6.0897
1.46103
3.77588
4.88269
4.59621
2.39256
1.33361
4.15077
5.0587
2.87276
1.18913
4.16195
5.34131
3.66315
1.32053
1.50955
1.4756
2.651
1.64002
8.83414
3.64018
4.48185
2.98775
2.74598
7.6915
3.04353
4.11982
4.42479
1.48114
3.81544
5.37528
4.52811
3.5169
2.6947
4.60325
1.26407
5.07101
3.45048
3.06861
5.28795
4.09246
5.1809
1.97932
1.18191
5.02422
3.94334
2.1701
3.07525
1.84207
3.14494
1.27193
3.91041
5.33047
4.90353
4.75337
1.31284
1.217
2.30997
5.10954
7.14682
0.869177
4.04146
1.16448
1.05693
2.46796
3.55943
2.47628
1.69596
6.11251
3.14629
0.920593
6.08629
4.06454
5.36232
2.98369
4.57753
4.56902
4.51922
4.54385
4.19266
4.81869
2.8564
3.06859
1.41286
5.20694
4.17032
2.59293
5.38521
5.0909
4.87203
4.91423
3.17186
2.86474
3.21334
2.90485
1.31475
4.47822
2.91828
3.14029
2.86911
5.16291
1.13821
1.25077
1.40024
4.81506
5.30807
3.14513
2.13424
3.34009
0.980748
3.962
2.56532
1.89958
2.50094
1.11223
4.37063
3.83568
6.13223
5.05325
1.09636
3.32991
1.51513
2.99972
5.30706
1.71739
4.88424
2.2544
5.11879
2.58392
3.87852
1.82318
0.960413
3.11859
1.41584
1.38479
4.84942
2.29568
4.96404
1.02668
2.00234
4.92257
5.02193
1.68622
5.62778
1.52762
5.9602
4.51586
5.20734
0.900255
4.80468
5.23622
4.71287
1.00056
1.64592
2.77353
1.58184
4.14917
5.49943
4.17259
1.28043
1.70236
1.86982
5.10474
1.07357
5.01835
5.20018
1.59511
2.72416
1.28989
5.00864
3.63364
5.23199
5.82188
2.27238
1.60444
5.41284
5.13865
1.93061
5.16619
4.22426
1.94998
1.31942
4.16825
3.8329
4.01059
2.11926
7.99758
2.90976
1.41358
7.5899
3.92573
5.60902
3.23413
3.0209
5.01162
3.7842
2.87693
2.86551
1.26719
4.67899
7.67279
1.39489
8.28828
1.39363
1.70363
4.95864
1.92397
2.77292
3.90523
5.10644
1.81786
1.25237
2.76214
4.15057
2.36495
4.35463
4.12209
4.15955
4.05924
3.27736
4.99421
3.39797
1.73114
4.75907
4.25554
3.10275
2.83604
1.70577
1.41714
2.15233
1.45596
5.98837
5.00043
1.77651
5.47818
5.45798
5.85247
5.47246
2.80892
3.43704
4.61948
1.77479
3.4205
4.65158
5.52815
1.36293
1.14632
5.50021
1.35744
1.34653
1.15406
5.57388
4.88095
4.9654
4.971
5.04986
5.44991
4.11096
2.43035
4.15071
4.07268
4.22437
4.74746
6.60714
5.10734
2.07452
7.59485
1.09744
3.63589
1.35978
1.32262
4.75078
4.42923
1.1922
1.59147
1.051
1.1233
5.37037
3.07133
1.68674
1.69506
3.62733
1.48132
1.48388
1.98338
1.54665
4.89682
6.77026
7.73263
2.0333
3.13353
2.13706
3.8689
7.31109
3.92978
3.57337
1.80554
1.54737
4.99472
3.77144
4.38427
2.01213
3.52883
4.86144
3.51853
5.10261
6.461
5.80821
4.3843
1.97045
3.47955
2.30878
5.28546
6.45085
5.09585
4.64717
1.61885
3.62433
4.08041
2.87505
2.86864
4.05575
1.05633
3.93811
4.95072
2.00306
1.05818
1.01142
3.5996
1.14568
1.51772
3.36245
5.16607
6.07289
4.03364
1.06365
3.14489
1.50687
1.78085
3.58785
6.33507
2.87668
1.0601
1.17712
3.31722
0.799838
2.37948
4.05873
2.80934
4.99506
1.94569
2.33699
3.96518
2.55102
2.30551
0.962486
5.51997
3.06382
0.859983
5.32122
1.2375
2.26169
3.20022
5.15343
4.41099
4.46173
1.33206
3.56517
5.9727
1.53811
5.67252
1.84182
4.90496
4.11883
4.70439
4.35251
5.44994
1.66079
5.76528
4.456
1.20484
4.80359
1.49161
1.35208
4.8277
2.30361
3.93293
1.55881
1.1957
4.68274
2.97411
4.87166
3.1318
2.99287
4.70394
1.29647
1.27294
1.28693
1.4505
7.03157
1.38463
7.96212
4.19569
2.89672
7.3726
4.66286
1.4898
3.91718
3.47457
2.70421
1.61833
1.40599
3.45895
1.44728
1.2619
4.67778
1.27058
1.40696
1.30504
1.67479
1.70986
4.13616
2.78337
1.19326
1.40373
1.39239
2.88002
2.90256
4.70459
3.91996
3.80964
1.58753
1.74137
3.61701
1.96206
1.44735
1.70164
3.33743
7.33024
3.64298
2.20031
3.03966
1.51758
6.86195
5.11679
4.96924
4.14098
4.17984
3.44506
1.77203
4.58716
3.4301
1.76832
4.61452
4.14325
4.15507
4.18603
3.19019
3.53602
1.37294
1.47428
4.69414
2.13758
4.19487
4.57216
4.46167
8.54377
4.46167
7.73044
6.22642
1.57852
4.37104
2.28495
4.08402
4.44779
1.94157
1.63043
1.63188
5.1196
4.83609
4.46828
1.39272
1.75171
3.94349
4.02576
2.26334
1.71752
2.0627
3.96795
7.67042
3.93436
7.68658
8.2932
2.99291
3.02153
1.26095
1.27411
1.56053
3.58468
1.2898
1.25897
1.7927
3.10067
3.62129
2.71352
5.77117
2.29977
5.34104
1.65698
1.60289
3.96511
1.53131
4.75794
1.56222
2.79107
1.19944
1.35869
1.14197
5.50888
3.45063
4.61343
3.41217
4.62503
5.49919
1.1456
1.34446
5.53071
1.77022
4.03325
3.93832
1.72652
3.34694
3.35728
1.81805
5.80817
3.32373
1.65348
2.66307
1.64553
1.72369
4.33647
1.68485
2.81532
4.52506
3.71896
4.61834
3.46189
2.80974
2.71255
2.00849
2.56989
3.33537
5.67172
2.07517
5.04766
1.38578
2.60555
3.88218
4.75134
1.2816
1.31319
1.48228
3.78893
1.53208
3.88925
3.657
5.25819
2.61018
3.46057
3.62555
1.08705
1.35194
1.0028
1.49107
4.09966
1.73636
1.65807
1.42483
1.73092
2.77211
1.71534
3.96995
1.54654
1.60658
6.02663
3.21378
1.93464
6.62281
3.15603
6.03997
5.23975
1.78223
4.36233
1.82562
6.42423
3.71195
3.37369
2.31752
1.17677
3.03209
1.73148
4.92168
3.83142
1.95177
3.20344
3.97377
1.84199
1.97822
3.73312
1.31465
1.5223
7.47918
1.53202
1.28862
2.89443
3.45628
4.54384
4.16616
3.32162
7.30989
3.32162
2.57717
8.01173
6.67208
7.2188
8.24831
7.57887
1.40247
3.41094
3.82045
1.36224
1.39504
3.37791
3.49667
2.61725
1.41255
1.83088
3.44452
2.69123
3.99658
3.91333
2.7074
1.54603
3.21346
3.88256
3.03577
1.69469
3.1382
3.83335
3.59725
2.95231
3.65691
1.73891
1.43873
2.84418
2.74745
1.30324
3.00777
1.73715
3.78777
1.5574
1.49362
1.94876
2.61558
2.89261
3.89759
1.58399
1.99161
1.63005
6.15315
7.03525
4.61852
4.19367
1.45083
1.86641
1.9604
4.36098
6.79147
5.77503
3.34071
1.86165
6.36947
4.49926
7.30995
4.56179
1.89822
1.72836
2.56357
6.80665
1.59893
3.69589
6.81324
3.68457
1.64053
6.37123
6.66126
7.16543
3.7603
6.69376
1.9034
6.74121
7.2789
7.00507
2.24394
3.23359
6.59492
1.58911
1.70788
7.03705
6.84261
4.27307
4.35626
6.90195
1.4477
6.92497
6.29973
7.50375
4.35392
2.02166
7.41984
5.02643
7.09443
4.07104
1.32002
1.42282
2.56581
3.40599
1.49258
3.97395
1.35258
3.71885
1.56802
1.80194
4.03366
3.66055
1.5802
2.67049
2.04355
3.75379
4.1265
3.7006
4.33702
1.56604
2.56281
1.49901
1.87766
1.51417
5.44147
1.75734
1.51998
4.99672
4.36041
5.25625
3.64224
3.60366
1.36049
2.37123
4.26715
1.59519
4.21196
2.89279
6.97969
3.04278
3.15398
1.8805
1.60567
1.87574
1.57962
1.2955
1.79911
3.70694
1.91904
1.63636
1.35889
2.61132
2.67884
3.0006
1.64123
1.32096
1.30087
3.90101
2.78634
3.86857
1.63969
2.46043
3.64694
1.49073
1.68302
1.74574
1.29525
1.42189
1.30861
1.6305
1.99902
4.04354
3.38363
1.61875
3.64282
3.07196
1.28032
2.88522
2.87061
1.43961
2.5602
1.41235
1.14752
2.63079
3.76122
1.71447
1.17752
3.4699
3.85835
5.02939
1.4559
1.34992
2.88883
1.63411
1.90513
3.14441
3.72218
10.4508
2.57258
3.65595
1.43782
1.90607
3.21444
4.24949
5.83299
3.7665
4.79163
4.54174
1.76386
3.30501
1.73899
3.72458
3.54421
3.7109
6.39751
3.20276
1.73794
1.70643
4.06522
3.37774
1.83444
2.91197
6.28356
2.63631
5.54878
3.87994
4.31958
3.52397
3.51396
4.44633
6.42858
4.2173
7.11347
4.2173
6.04076
3.72213
1.82399
7.21022
2.87802
1.77036
3.67168
2.9964
2.66864
1.56807
3.48869
4.17873
1.80629
5.97897
2.81209
8.69365
3.86158
7.43352
5.33884
2.05185
7.38235
7.27445
7.13525
1.31253
2.59541
3.72906
3.18779
1.31208
1.36751
3.47152
1.50316
3.46196
5.57602
8.75009
3.38814
1.50725
1.49476
3.33823
5.56096
8.97047
6.83959
4.91652
1.37191
1.72557
3.84125
1.83993
6.01025
2.17241
4.71995
4.95238
5.37834
3.38274
1.24581
4.44422
4.9156
1.38761
3.65615
2.24791
2.32212
1.85592
2.29585
4.16645
3.91985
3.38452
1.21612
2.58596
1.60145
6.15768
0.917988
2.18551
1.37403
3.59679
3.57293
5.8396
1.40293
1.74514
4.20809
6.68174
4.88442
2.5215
2.19671
2.74557
6.13076
3.64029
5.19083
5.48598
5.74865
4.04961
2.67001
4.07809
2.94265
3.65046
3.47864
1.46784
1.19114
4.38096
4.04137
5.88251
3.59846
0.991916
2.74312
3.83852
4.0811
3.58013
6.22789
1.66652
4.74332
4.07383
5.17997
3.31881
3.7126
6.15905
4.19512
1.39587
3.71117
4.58697
1.61576
1.83775
3.75307
2.58859
4.04869
3.82403
3.74256
4.26644
5.22532
2.86918
4.94165
3.75824
2.50618
3.72485
5.27246
1.70534
8.18407
4.85542
5.22694
3.00347
5.34165
2.22807
5.57107
1.50862
1.70194
2.45444
3.09132
1.3514
3.28218
1.47461
3.21857
4.56883
7.84374
5.00745
5.27835
3.36544
3.78715
1.52193
3.25215
1.3876
2.37917
3.50325
3.7853
3.67797
2.37052
0.988869
4.98592
3.93584
2.40058
5.17275
1.61072
1.45161
4.71116
3.82304
4.29878
8.39105
8.03686
2.86943
1.19055
1.48207
1.39406
1.25819
1.00351
3.5712
3.58075
1.34707
4.03451
3.17255
1.3859
2.53558
1.15149
4.60219
5.27832
2.99502
3.54068
3.21967
5.3742
1.23698
3.29888
3.39493
1.3173
4.96946
2.3948
3.75454
1.46447
5.37279
5.06068
3.46591
3.44028
1.38074
1.53148
1.66886
1.49198
1.44769
3.56779
3.64236
3.19549
2.88229
1.80709
1.46108
3.78218
1.43158
1.45846
1.44992
2.73637
3.81157
3.74844
3.46472
4.3039
1.61503
1.6251
3.66718
6.52758
7.57283
6.02406
1.69455
5.1105
4.82688
4.15842
5.44237
4.73559
3.9438
3.10195
1.32666
5.70467
6.6187
5.32504
5.64832
5.49275
4.35281
5.62566
3.46466
3.68665
3.60855
3.5922
4.67369
6.1045
3.6727
4.6892
4.31358
3.98553
3.14835
4.28012
4.00994
5.69694
3.01756
2.30043
0.970998
3.96562
3.92445
4.64977
4.32774
4.24235
1.3039
4.56237
1.25769
2.97488
1.37538
0.900859
3.42457
2.38225
1.69443
4.13533
4.46204
5.70373
2.75827
3.25615
4.07478
2.75706
5.31285
1.04021
4.18379
4.22563
5.79323
4.54882
4.28882
4.82241
3.78785
4.1084
6.86909
5.82233
6.11263
6.40237
6.61377
5.29712
5.40467
4.17322
1.17252
2.80933
2.19036
1.5564
0.881062
4.68167
5.08029
4.35974
2.32914
3.41558
2.26257
4.73447
2.75134
4.51784
3.38981
1.27948
1.2923
3.33905
4.6236
0.836335
3.08943
1.98073
1.51383
4.98814
1.27682
1.97652
1.09591
3.86422
4.50513
5.61727
1.24461
5.97652
1.75445
6.7244
7.72789
3.64277
2.817
7.27341
8.53255
7.97938
7.69735
2.04754
4.74804
2.99076
3.64052
3.08721
5.02639
5.95198
4.70102
2.14439
4.69009
5.14054
4.1058
4.52357
2.34996
5.20887
0.928044
5.17061
3.1035
3.3523
3.15362
3.03008
3.4215
2.23987
3.39356
3.55885
3.56049
3.36832
2.1547
3.07361
3.39748
4.09419
4.26137
4.52035
2.15216
0.992195
0.968215
3.28301
3.76301
5.14242
6.35471
2.88615
2.44407
4.40497
4.14974
3.82138
4.67298
3.29039
3.3773
3.89868
2.73974
3.43617
3.58883
3.68891
3.37396
4.31668
5.88528
3.58257
3.76556
5.8462
1.8852
3.33029
4.49421
4.14252
5.15719
6.05066
4.83708
1.18759
1.97578
1.10472
1.06176
0.998157
5.7253
3.24095
3.09377
5.28421
4.98849
2.24028
3.74671
3.23529
4.29704
2.35766
3.28209
2.15197
3.75841
3.52189
1.65353
1.98805
3.17015
5.90664
1.67531
4.35321
3.53931
3.98896
3.63723
3.86008
3.96596
4.78842
4.01666
5.87858
4.45611
3.16415
3.35842
4.03732
2.77889
1.51429
4.10903
7.52037
3.01519
5.67003
1.41465
6.53912
1.41017
2.00503
1.40172
1.57651
4.51748
7.68686
1.13253
0.990062
4.08551
2.63358
4.4984
5.30877
2.99178
1.36394
1.2077
3.49519
1.36887
1.54667
1.17195
4.98581
4.68206
2.51671
1.39615
3.0548
3.56286
2.11471
1.07835
4.81902
0.941047
2.89522
2.30662
1.74959
1.11985
3.34384
2.1539
2.10692
2.83549
1.35368
5.02216
5.51524
2.66215
1.32195
1.16824
2.20288
4.38527
7.8002
3.56982
2.09562
2.06222
4.11733
4.74407
5.86385
3.68544
4.63466
5.64706
2.38499
4.06965
1.89464
4.64342
6.58203
5.70599
5.24653
5.73029
3.95793
3.92379
4.67016
4.66185
1.07977
3.69538
2.93175
5.43505
3.73329
3.65903
3.67314
3.73655
3.03055
0.999916
2.28425
2.23564
7.65981
7.9469
6.40217
7.55836
8.06741
6.5946
6.00353
7.13155
5.79501
6.73938
5.54274
5.22919
5.21055
5.2481
5.07048
5.11037
5.93086
4.72552
1.36698
4.27692
2.59895
3.87177
2.00963
5.82137
2.2569
5.06131
5.76311
4.18543
5.87343
4.63146
4.48891
5.95639
6.73209
7.02144
9.62662
5.20429
6.36079
3.85674
4.19065
3.94922
4.42034
5.82659
6.7945
4.93687
5.2151
5.69991
7.04565
6.73293
1.42087
5.16909
5.68612
6.46728
7.61255
4.19115
7.05074
3.88918
3.60726
4.2923
4.77697
3.39366
1.7124
3.61217
3.82994
4.63699
4.51807
1.34073
3.86388
6.86409
6.28324
6.24174
3.73852
6.77005
3.23895
2.44759
4.04353
4.31686
3.28588
4.07221
4.69518
6.92967
5.76908
5.48855
5.60514
7.05193
4.57712
5.84481
7.24803
7.30371
1.4492
4.34028
7.55573
4.72852
5.70267
3.66482
3.64499
3.67578
3.7262
1.43723
0.843984
3.65257
3.63634
3.69764
3.6183
3.95462
4.39514
3.46803
2.6056
1.85646
1.85375
4.05169
2.77916
0.796816
1.40975
0.828938
1.87685
2.16075
5.8815
5.08919
5.35524
3.3837
3.51644
3.2063
3.55432
1.56319
0.899177
0.930667
6.40138
3.98055
4.65637
3.96786
4.62537
2.18417
7.12932
6.52716
7.41967
5.51869
5.12602
2.74402
3.73327
1.93848
6.19504
6.03212
3.82574
3.91082
4.53371
4.43908
4.39093
6.75992
2.77179
5.20907
7.43168
3.65066
3.22993
3.6804
4.16706
3.02572
4.55927
2.28624
3.5365
5.43657
6.58736
4.15742
6.39244
6.95923
1.67481
2.74995
1.2056
2.52672
3.32837
9.57394
5.77391
1.60237
3.01551
4.10813
3.12673
3.13828
1.1449
2.01449
1.63019
1.73339
2.03796
1.09825
4.75472
2.01297
5.64683
4.07268
3.99455
1.90979
4.1318
1.28941
3.35952
4.68515
2.51008
5.88578
7.69424
2.62023
6.32015
1.81337
6.46839
5.76497
5.89324
4.81546
5.21672
4.46337
4.46341
0.90047
5.19075
4.44358
3.97054
2.72317
2.82944
4.75519
3.70693
1.43892
4.48151
2.80914
2.38711
4.74978
1.21043
5.09257
3.80773
1.95188
2.02818
2.8784
4.03708
3.17847
5.15135
4.24476
4.54138
4.88767
3.97431
5.89736
3.00514
5.05807
4.27826
2.42391
5.78777
4.59403
2.93846
1.61541
3.05955
1.67824
3.09074
1.25655
3.59181
3.33634
4.97797
5.83844
4.49454
4.71894
4.71894
4.74543
7.25218
1.98059
4.73004
5.10855
3.9929
1.32489
2.2223
3.11961
2.96128
5.06929
1.80817
1.0192
4.07102
2.20071
3.13815
1.55319
3.37823
3.97986
2.76805
5.382
1.68709
4.18265
2.472
3.92391
1.27264
5.87205
5.53712
4.87952
1.82098
5.59741
3.96539
3.4866
1.79497
3.27428
2.59846
3.0986
1.34805
2.52591
2.24329
2.62535
2.86061
1.47092
1.46062
2.68954
2.48211
1.31536
3.28976
2.01664
2.81614
1.456
8.61467
8.48454
3.759
2.00648
4.04196
2.73823
3.00924
2.13849
4.25262
2.73486
2.12405
3.28643
1.1211
3.13245
2.70167
2.49973
2.26835
3.25663
3.4866
4.62248
4.95105
3.30919
2.98184
1.92655
6.46651
2.2923
2.42111
2.22815
7.53222
3.17389
2.76574
2.89615
2.26197
2.80641
1.43747
3.92778
2.7624
1.49112
4.15787
3.9471
2.94268
1.22802
1.38574
2.51173
2.47971
1.26641
1.53618
1.35402
1.44335
1.95083
2.45407
2.99109
1.04403
2.86509
3.08947
3.78249
2.60509
1.01307
1.19095
3.93642
2.19584
3.37741
2.87197
1.4702
1.211
1.58441
3.89404
2.17614
1.1733
3.62661
2.80429
1.18502
1.41784
2.31371
1.3312
3.90631
2.34279
2.85959
3.38029
3.74577
1.09589
2.76726
2.6239
2.90136
2.08745
2.95695
2.47449
3.6437
5.50829
5.46326
3.5662
4.05169
0.950992
5.5426
4.58682
5.03162
1.45466
5.45542
2.77829
2.18724
2.48408
1.34583
3.46979
1.04368
3.5252
4.77796
5.10949
2.82943
2.94616
4.76699
4.87298
3.42149
1.55094
1.61569
7.85351
3.9002
2.65994
7.62553
7.03146
7.40648
7.62637
4.06732
4.82415
3.71982
4.39784
4.55019
1.92138
1.77999
2.04304
4.55153
5.77424
4.75157
4.43447
4.64833
4.49295
4.25756
4.42203
4.35033
5.3974
5.05691
2.13756
1.51218
4.68521
4.26612
4.06861
5.32052
5.36277
1.82263
3.24083
4.31572
2.08889
3.50994
2.2876
3.6696
2.92318
3.52532
3.17417
1.49946
5.02859
5.63318
2.96479
3.4697
2.21796
2.15716
5.46062
3.66719
3.89128
5.25084
0.85118
5.17826
1.7064
4.24383
3.52085
1.96653
3.50312
2.24433
1.68847
4.05757
3.04788
1.89297
2.75406
0.985128
5.516
3.39562
4.27322
5.14979
3.01277
1.0563
4.52275
2.19753
2.11462
1.01086
5.8172
2.08502
2.88091
2.72913
2.9443
6.19906
4.71775
4.54171
4.31108
4.70872
4.55468
3.59084
2.66663
5.46413
1.15815
2.84307
1.34307
3.7996
4.89301
2.85348
5.66095
4.752
3.51965
1.6174
3.2125
2.55422
1.02941
1.55896
3.89571
2.99516
1.73883
4.78771
4.66083
5.03319
5.7873
5.48092
4.77915
5.29961
5.02659
3.65852
4.6177
4.91992
1.6114
3.32224
3.81806
2.9614
5.64309
0.990599
5.68302
4.72033
3.20559
5.22716
4.14437
2.24838
2.70041
1.49953
2.03722
2.09942
1.63812
1.42028
5.46895
6.0262
5.25622
5.24265
4.62754
2.57763
5.18855
6.18148
4.8425
4.95171
5.20564
3.78682
2.84975
2.505
3.48764
5.3552
1.38743
3.80889
7.78861
1.19076
6.33344
1.27474
6.5499
7.75347
7.92732
3.47425
1.21181
6.02155
3.61577
4.26503
5.30012
1.46499
6.3737
4.20182
2.15827
7.34152
5.64067
6.89595
4.01459
4.83262
4.71306
4.69617
4.28899
5.85899
2.20266
6.8284
7.12112
5.61553
7.85075
8.35763
8.3209
6.86639
2.41757
7.64704
7.0723
3.7365
2.05251
2.9229
4.84072
4.43061
3.91445
1.58191
1.72104
2.98893
1.07678
1.98186
3.05968
1.71137
7.25886
3.69783
1.25957
1.27711
2.08341
4.61642
3.72198
1.65792
2.69402
3.63624
2.3868
3.3136
1.21157
1.4795
1.80244
5.06012
1.67866
2.59351
3.55619
1.53465
1.30738
4.54216
4.201
2.76946
4.39604
3.89097
1.75719
4.40742
5.59092
3.07814
3.70346
4.63607
5.53545
0.991448
1.00053
1.12233
3.66374
1.08878
4.37331
1.83457
4.97866
3.04149
5.83282
1.34416
2.60664
6.75431
1.02917
3.05693
1.18956
1.43721
2.87581
5.24721
1.42782
1.48656
7.66892
2.80356
1.27685
3.55579
1.58068
2.73477
3.32932
3.11017
3.093
5.23982
5.15709
4.01614
3.44748
1.36462
2.83577
3.64781
1.72848
1.30262
1.55231
5.49099
5.34646
1.47433
1.33042
4.73501
4.64733
2.32122
3.84389
2.8115
1.144
1.65746
2.66838
3.3064
3.67549
4.21736
2.64455
5.17623
1.95909
4.70984
1.3082
1.49408
2.40169
3.90976
2.98237
1.23863
2.7078
3.23948
2.76765
6.35599
1.80079
3.30364
4.13539
1.19293
3.51118
1.40768
1.60975
2.52673
2.32699
4.10368
2.78527
1.6213
1.41689
3.97495
3.13473
2.40643
3.60205
6.77902
3.62872
1.10429
1.123
1.45717
4.06977
3.20247
1.40196
1.60516
1.4125
4.35466
1.6053
3.08577
8.26488
3.70259
3.53305
1.50527
3.71509
1.43995
3.53183
1.31403
1.39101
1.46126
3.4224
3.71662
2.60966
5.43391
1.6983
3.55658
1.6262
2.73923
1.61989
2.60101
4.06435
5.99588
3.17325
4.52277
1.14125
5.35783
3.9583
1.15572
2.71816
3.27093
4.93584
2.34023
4.6024
4.03182
1.04542
3.24696
5.14065
1.80149
4.30257
5.18934
2.2875
3.52786
4.33291
5.21854
5.97263
3.82766
4.08968
3.23808
2.3722
3.00166
2.34644
1.33134
5.24922
1.00425
3.06204
2.8753
5.4142
9.61739
2.69613
5.38573
1.13762
1.72956
5.76679
1.16473
1.11334
3.34951
5.40415
4.03239
4.88715
2.25828
6.61913
5.51274
8.96112
4.76965
5.55786
1.27965
5.7337
2.02288
4.81282
4.452
3.67804
3.18614
2.06837
5.86751
4.06103
0.941909
3.17232
5.31196
2.09474
1.10845
2.27735
4.69242
6.15456
2.31966
2.00428
3.01698
2.7161
4.04792
5.25525
6.22578
5.53439
2.65706
3.64742
2.75735
3.9205
4.66105
4.53596
3.87656
1.23304
5.56696
5.01516
4.10414
2.34842
1.11723
5.70148
3.36222
4.29436
1.99283
1.21641
1.99486
2.13123
3.75827
4.63539
0.830245
1.04528
1.14575
5.62084
5.84444
3.52168
1.04295
1.8705
4.46082
5.81136
1.60908
0.793666
1.32328
0.920649
4.66089
5.95618
1.51819
2.6053
3.46751
5.47746
1.63215
0.96619
2.76924
2.99034
1.69975
1.74227
2.93844
0.91882
1.50707
1.53191
2.08902
3.63616
4.71623
5.93263
3.51904
5.33277
3.22646
3.8721
4.37151
3.06556
2.00191
2.47997
2.97043
4.67581
1.70559
4.05408
1.13711
5.17787
2.55894
5.34264
4.17732
0.794729
1.62694
5.88731
3.83483
5.467
5.01877
4.46221
4.97548
2.58233
4.77028
4.79495
4.93882
3.63672
5.7205
4.01103
2.17683
6.01705
1.74029
0.97217
2.4189
6.06282
3.35181
1.27073
2.93943
4.93421
5.7635
3.45146
3.20842
2.36974
2.98
0.969536
5.20296
1.00056
3.85157
3.79823
4.17207
4.45279
4.74385
3.55823
2.87037
6.74186
1.96715
7.94688
3.68016
7.85633
4.21707
4.44635
7.55905
4.84225
2.05125
1.72976
5.53826
3.73578
4.95256
2.47394
3.90394
3.24109
2.47111
6.48189
2.05821
3.34118
5.3503
4.60828
3.48243
7.62429
5.72184
3.40548
7.72736
7.55425
3.36482
4.52942
4.71818
1.42783
5.92219
1.94139
1.26122
3.19863
2.30832
4.96675
5.1366
2.20814
3.34535
1.35306
1.34496
5.17035
1.85472
5.46346
3.15686
3.49159
0.940148
4.70366
1.63283
5.32178
2.35153
1.23876
3.72953
3.62103
2.99657
4.67121
4.38379
4.39342
2.6587
5.83008
4.56051
1.13472
1.1431
5.38775
1.28614
4.08348
4.28008
5.28068
5.41755
3.13957
2.7479
10.4596
7.41821
6.47297
1.74173
3.09346
2.6826
3.8789
3.98846
3.46039
1.46793
4.66177
3.41912
5.80063
3.42392
6.50066
2.0818
6.34516
3.6069
2.19502
2.37677
1.97167
9.48824
5.42819
6.33935
9.26269
1.8939
5.15345
3.37743
2.17132
2.18657
1.98984
3.11551
2.1374
4.81765
2.81371
7.82053
6.5635
9.06892
5.78016
2.07451
5.81566
6.71206
2.24179
6.16425
5.37091
3.4491
3.33607
4.98648
5.06153
6.04132
7.2697
4.64025
2.56216
5.88567
2.85129
4.68499
5.34201
5.35588
3.45391
5.9124
4.7071
3.37495
4.94512
9.07895
3.02395
7.59711
5.77537
8.25826
3.16649
5.26216
4.03424
5.48742
3.83465
2.55794
4.68064
9.33538
6.16281
5.13378
5.17795
5.53408
4.96072
6.39945
7.98648
3.5143
3.57843
6.45025
8.5889
1.34177
4.24362
4.30772
5.83948
6.7566
4.06421
3.41026
5.7559
6.96553
2.11661
5.7898
4.1152
3.45495
2.33901
3.61202
4.23437
7.36048
5.84655
3.94753
7.11662
5.21926
6.48286
7.82862
5.64951
3.69114
4.69691
5.20469
4.16412
3.20536
9.81431
6.00856
3.57843
6.86225
6.80192
6.29286
6.22737
3.56626
6.77383
3.77421
2.88389
5.10315
6.98463
5.97354
6.1132
5.41582
7.02682
4.68713
3.69434
1.52809
5.06489
4.43769
7.22406
6.09737
4.25997
2.52096
1.26616
5.14785
3.4973
4.00089
5.66136
3.10732
2.05524
5.25254
2.22694
3.50108
3.25922
3.58199
0.901555
5.94006
3.67628
3.79161
5.06059
5.41115
3.75662
3.67077
5.05077
4.28678
3.62901
4.5973
5.54145
1.52582
3.73176
3.90068
3.14052
4.08751
3.84129
2.71217
4.26077
4.0257
3.92686
4.4742
3.2728
4.85452
6.16228
5.24976
4.9644
4.15994
4.93928
4.68239
4.28204
5.56337
3.20085
1.62073
4.93521
0.8327
5.61817
2.50213
5.83946
5.21381
4.6426
4.41203
4.55554
4.35513
4.89516
5.35748
3.59512
3.84197
4.90141
4.75503
3.66011
3.85863
4.87251
3.43094
4.65309
3.76239
5.26935
3.81956
4.97237
3.19795
1.90779
3.36296
7.61306
3.24635
9.07187
2.40919
4.90517
4.49966
2.09985
5.81561
4.60638
6.7205
2.22025
6.16438
4.93698
7.42166
5.75559
5.66043
4.25005
3.89489
5.79249
6.89401
5.25305
5.61323
6.09316
6.91896
3.86237
1.88781
2.87589
1.63471
2.3706
5.74637
1.64474
6.29766
3.16533
4.07463
1.8381
5.8867
1.73058
2.74605
3.75446
2.66679
3.1092
6.25837
6.9674
1.63545
2.69879
4.58342
3.92693
1.59501
1.12271
4.12511
5.07521
1.27778
2.5166
2.37327
5.26525
2.97454
1.87045
1.05303
2.86455
1.34595
2.74804
2.25948
1.32394
2.74511
2.60389
1.02268
2.39121
3.8373
1.97707
2.36078
3.91836
2.03843
4.91204
2.5003
6.01469
1.34971
3.56317
3.16787
4.64449
1.14135
2.5687
4.87553
5.19451
3.76853
4.42173
4.56245
4.40424
1.62552
4.72898
4.63122
6.4012
2.9548
1.13807
4.11446
1.61829
1.89681
4.48198
2.98368
2.35641
4.8335
3.79107
1.12448
1.30305
5.83513
2.84607
3.41776
1.45915
4.97977
4.40439
4.89313
1.11134
2.91657
4.68755
2.94916
4.50033
5.58418
2.04947
6.03761
5.05531
7.12833
4.05617
5.86216
4.18469
2.94524
4.32083
6.33592
1.42146
2.63992
1.53813
3.12395
3.90475
2.73933
1.58577
3.87949